nqpoint: 5      
natom:   2      
reciprocal_lattice:
- [  -0.17351247,   0.17351247,   0.17351247 ] # a*
- [   0.17351247,  -0.17351247,   0.17351247 ] # b*
- [   0.17351247,   0.17351247,  -0.17351247 ] # c*
phonon:
- q-position: [    0.5000000,    0.5000000,    0.5000000 ]
  band:
  - # 1
    frequency:    1.7761130310
    eigenvector:
    - # atom 1
      - [ -0.46175543452105,  0.00000000000000 ]
      - [ -0.07372597751060, -0.05619363111142 ]
      - [  0.53548141203165,  0.05619363111142 ]
    - # atom 2
      - [ -0.31895139721470, -0.31895139721470 ]
      - [ -0.01211023403822, -0.08974023389364 ]
      - [  0.33106163125292,  0.40869163110834 ]
  - # 2
    frequency:    1.7761130310
    eigenvector:
    - # atom 1
      - [  0.35766117121414,  0.00000000000000 ]
      - [ -0.57208661325550, -0.07254831287133 ]
      - [  0.21442544204135,  0.07254831287133 ]
    - # atom 2
      - [  0.24704967556369,  0.24704967556369 ]
      - [ -0.34504940702007, -0.44527296272064 ]
      - [  0.09799973145638,  0.19822328715695 ]
  - # 3
    frequency:    5.9013891878
    eigenvector:
    - # atom 1
      - [ -0.36137236423506,  0.00000000000000 ]
      - [ -0.36137236423505, -0.00000000000000 ]
      - [ -0.36137236423505,  0.00000000000000 ]
    - # atom 2
      - [  0.31838918613899,  0.31838918613899 ]
      - [  0.31838918613899,  0.31838918613899 ]
      - [  0.31838918613899,  0.31838918613899 ]
  - # 4
    frequency:    6.6749922078
    eigenvector:
    - # atom 1
      - [  0.45027030515070,  0.00000000000000 ]
      - [  0.45027030515069, -0.00000000000000 ]
      - [  0.45027030515069, -0.00000000000000 ]
    - # atom 2
      - [  0.25552884928402,  0.25552884928402 ]
      - [  0.25552884928402,  0.25552884928402 ]
      - [  0.25552884928402,  0.25552884928402 ]
  - # 5
    frequency:    7.4009765844
    eigenvector:
    - # atom 1
      - [ -0.56830324972243,  0.00000000000000 ]
      - [  0.32749752862830,  0.00632446557499 ]
      - [  0.24080572109413, -0.00632446557500 ]
    - # atom 2
      - [  0.41137476792219,  0.41137476792219 ]
      - [ -0.23248590315283, -0.24164202027663 ]
      - [ -0.17888886476935, -0.16973274764556 ]
  - # 6
    frequency:    7.4009765844
    eigenvector:
    - # atom 1
      - [  0.05058150173327,  0.00000000000000 ]
      - [  0.46171768361776,  0.07105788115941 ]
      - [ -0.51229918535103, -0.07105788115941 ]
    - # atom 2
      - [ -0.03661417306138, -0.03661417306138 ]
      - [ -0.28278491395452, -0.38565752425640 ]
      - [  0.31939908701589,  0.42227169731778 ]

- q-position: [    0.2500000,    0.2500000,    0.2500000 ]
  band:
  - # 1
    frequency:    1.4650069592
    eigenvector:
    - # atom 1
      - [ -0.54140775083635,  0.00000000000000 ]
      - [  0.44468265771667, -0.05314096967737 ]
      - [  0.09672509311969,  0.05314096967737 ]
    - # atom 2
      - [ -0.50939084166139, -0.16383582187808 ]
      - [  0.43446675332157,  0.08456736232636 ]
      - [  0.07492408833982,  0.07926845955172 ]
  - # 2
    frequency:    1.4650069592
    eigenvector:
    - # atom 1
      - [ -0.21005580004153,  0.00000000000000 ]
      - [ -0.34339323949953,  0.13696804784539 ]
      - [  0.55344903954106, -0.13696804784539 ]
    - # atom 2
      - [ -0.19763385473097, -0.06356514953268 ]
      - [ -0.36453420490269,  0.02495375348991 ]
      - [  0.56216805963366,  0.03861139604277 ]
  - # 3
    frequency:    3.6408336857
    eigenvector:
    - # atom 1
      - [ -0.40000995784312,  0.00000000000000 ]
      - [ -0.40000995784312, -0.00000000000000 ]
      - [ -0.40000995784312,  0.00000000000000 ]
    - # atom 2
      - [ -0.36916231469852,  0.19246961413717 ]
      - [ -0.36916231469852,  0.19246961413717 ]
      - [ -0.36916231469852,  0.19246961413717 ]
  - # 4
    frequency:    7.4224209173
    eigenvector:
    - # atom 1
      - [ -0.35020089565076,  0.00000000000000 ]
      - [ -0.21633017258100,  0.04321139982415 ]
      - [  0.56653106823175, -0.04321139982414 ]
    - # atom 2
      - [  0.33731786204003,  0.10849183896051 ]
      - [  0.22175875763093,  0.02539708307996 ]
      - [ -0.55907661967097, -0.13388892204047 ]
  - # 5
    frequency:    7.4224209173
    eigenvector:
    - # atom 1
      - [  0.45473091774731,  0.00000000000000 ]
      - [ -0.52881703936112,  0.03327829784635 ]
      - [  0.07408612161382, -0.03327829784635 ]
    - # atom 2
      - [ -0.43800248052761, -0.14087512085579 ]
      - [  0.51967273390400,  0.13177284628678 ]
      - [ -0.08167025337639,  0.00910227456901 ]
  - # 6
    frequency:    7.8870142767
    eigenvector:
    - # atom 1
      - [ -0.41632363247801,  0.00000000000000 ]
      - [ -0.41632363247801, -0.00000000000000 ]
      - [ -0.41632363247801, -0.00000000000000 ]
    - # atom 2
      - [  0.35469666004998, -0.18492767700656 ]
      - [  0.35469666004998, -0.18492767700656 ]
      - [  0.35469666004998, -0.18492767700656 ]

- q-position: [    0.0000000,    0.0000000,    0.0000000 ]
  band:
  - # 1
    frequency:    0.0000000822
    eigenvector:
    - # atom 1
      - [  0.59451155937879,  0.00000000000000 ]
      - [  0.35837782933633,  0.00000000000000 ]
      - [  0.01229164756376,  0.00000000000000 ]
    - # atom 2
      - [  0.61627676227831,  0.00000000000000 ]
      - [  0.37149812287334,  0.00000000000000 ]
      - [  0.01274164756624,  0.00000000000000 ]
  - # 2
    frequency:    0.0000001607
    eigenvector:
    - # atom 1
      - [ -0.34870441804539,  0.00000000000000 ]
      - [  0.57223558755182,  0.00000000000000 ]
      - [  0.18160784280832,  0.00000000000000 ]
    - # atom 2
      - [ -0.36147056580314,  0.00000000000000 ]
      - [  0.59318526207524,  0.00000000000000 ]
      - [  0.18825654708414,  0.00000000000000 ]
  - # 3
    frequency:    0.0000002209
    eigenvector:
    - # atom 1
      - [  0.08361209239863,  0.00000000000000 ]
      - [ -0.16168336702966,  0.00000000000000 ]
      - [  0.66999795091129,  0.00000000000000 ]
    - # atom 2
      - [  0.08667315004705,  0.00000000000000 ]
      - [ -0.16760263173252,  0.00000000000000 ]
      - [  0.69452672770931,  0.00000000000000 ]
  - # 4
    frequency:    7.6454439596
    eigenvector:
    - # atom 1
      - [ -0.00000000000000,  0.00000000000000 ]
      - [  0.71748904296470,  0.00000000000000 ]
      - [  0.05638905772359,  0.00000000000000 ]
    - # atom 2
      - [  0.00000000000000,  0.00000000000000 ]
      - [ -0.69214930024817,  0.00000000000000 ]
      - [ -0.05439755105355,  0.00000000000000 ]
  - # 5
    frequency:    7.6454439596
    eigenvector:
    - # atom 1
      - [  0.71970150243372,  0.00000000000000 ]
      - [  0.00000000000000,  0.00000000000000 ]
      - [ -0.00000000000000,  0.00000000000000 ]
    - # atom 2
      - [ -0.69428362172433,  0.00000000000000 ]
      - [ -0.00000000000000,  0.00000000000000 ]
      - [ -0.00000000000000,  0.00000000000000 ]
  - # 6
    frequency:    7.6454439596
    eigenvector:
    - # atom 1
      - [  0.00000000000000,  0.00000000000000 ]
      - [ -0.05638905772359,  0.00000000000000 ]
      - [  0.71748904296470,  0.00000000000000 ]
    - # atom 2
      - [  0.00000000000000,  0.00000000000000 ]
      - [  0.05439755105355,  0.00000000000000 ]
      - [ -0.69214930024817,  0.00000000000000 ]

- q-position: [    0.2500000,    0.0000000,    0.2500000 ]
  band:
  - # 1
    frequency:    1.9294570671
    eigenvector:
    - # atom 1
      - [ -0.59373289933003,  0.00000000000000 ]
      - [  0.00000000000000,  0.00000000000000 ]
      - [  0.11738990183215,  0.42815789987011 ]
    - # atom 2
      - [ -0.20446862192715, -0.06280656095585 ]
      - [  0.00000000000000,  0.00000000000000 ]
      - [  0.08571813478777,  0.63030309208858 ]
  - # 2
    frequency:    1.9294570671
    eigenvector:
    - # atom 1
      - [  0.44395898039497, -0.00000000000000 ]
      - [  0.00000000000000,  0.00000000000000 ]
      - [  0.15699253724941,  0.57260116922238 ]
    - # atom 2
      - [  0.63053503584770, -0.08399497066168 ]
      - [  0.00000000000000,  0.00000000000000 ]
      - [  0.11463598877406,  0.18058425050287 ]
  - # 3
    frequency:    3.7189675014
    eigenvector:
    - # atom 1
      - [ -0.00000000000000,  0.00000000000000 ]
      - [  0.67630273808384,  0.00109887670654 ]
      - [ -0.00000000000000, -0.00000000000000 ]
    - # atom 2
      - [ -0.00000000000000,  0.00000000000000 ]
      - [  0.73662199695370,  0.00119688522372 ]
      - [ -0.00000000000000, -0.00000000000000 ]
  - # 4
    frequency:    7.1574108186
    eigenvector:
    - # atom 1
      - [ -0.16501938248295,  0.00000000000000 ]
      - [  0.00000000000000,  0.00000000000000 ]
      - [  0.45365618616330, -0.46620417859617 ]
    - # atom 2
      - [  0.45143782157981,  0.29619765544248 ]
      - [ -0.00000000000000,  0.00000000000000 ]
      - [ -0.40424933584385,  0.30768758286230 ]
  - # 5
    frequency:    7.1574108186
    eigenvector:
    - # atom 1
      - [  0.65050001643717,  0.00000000000000 ]
      - [ -0.00000000000000, -0.00000000000000 ]
      - [  0.11508387672342, -0.11826706182772 ]
    - # atom 2
      - [ -0.50243726446100,  0.07513966634732 ]
      - [  0.00000000000000,  0.00000000000000 ]
      - [ -0.10255030604836,  0.53010620876550 ]
  - # 6
    frequency:    7.9929596599
    eigenvector:
    - # atom 1
      - [ -0.00000000000000, -0.00000000000000 ]
      - [ -0.71103595508348, -0.19246108569996 ]
      - [  0.00000000000000,  0.00000000000000 ]
    - # atom 2
      - [  0.00000000000000,  0.00000000000000 ]
      - [  0.65281184282804,  0.17670115713590 ]
      - [ -0.00000000000000, -0.00000000000000 ]

- q-position: [    0.5000000,    0.0000000,    0.5000000 ]
  band:
  - # 1
    frequency:    2.2583663193
    eigenvector:
    - # atom 1
      - [  0.75594278285755,  0.00000000000000 ]
      - [  0.00000000000000, -0.00000000000000 ]
      - [ -0.00767285539299, -0.00000000000000 ]
    - # atom 2
      - [  0.00000000000000,  0.00664380523987 ]
      - [ -0.00000000000000, -0.00000000000000 ]
      - [ -0.00000000000000, -0.65455900894239 ]
  - # 2
    frequency:    2.2583663193
    eigenvector:
    - # atom 1
      - [  0.00767285539299,  0.00000000000000 ]
      - [ -0.00000000000000,  0.00000000000000 ]
      - [  0.75594278285755,  0.00000000000000 ]
    - # atom 2
      - [  0.00000000000000, -0.65455900894239 ]
      - [  0.00000000000000,  0.00000000000000 ]
      - [  0.00000000000000, -0.00664380523987 ]
  - # 3
    frequency:    6.2170509048
    eigenvector:
    - # atom 1
      - [  0.00000000000000,  0.00000000000000 ]
      - [ -0.00000000000000, -0.00000000000000 ]
      - [ -0.00000000000000, -0.00000000000000 ]
    - # atom 2
      - [  0.00000000000000, -0.00000000000000 ]
      - [ -0.00000000000003, -1.00000000000000 ]
      - [  0.00000000000000,  0.00000000000000 ]
  - # 4
    frequency:    6.7825907286
    eigenvector:
    - # atom 1
      - [ -0.00000000000000, -0.00000000000000 ]
      - [  1.00000000000000, -0.00000000000000 ]
      - [  0.00000000000000,  0.00000000000000 ]
    - # atom 2
      - [  0.00000000000000,  0.00000000000000 ]
      - [ -0.00000000000000, -0.00000000000000 ]
      - [ -0.00000000000000, -0.00000000000000 ]
  - # 5
    frequency:    7.1366006883
    eigenvector:
    - # atom 1
      - [ -0.65432308564574,  0.00000000000000 ]
      - [ -0.00000000000000, -0.00000000000000 ]
      - [ -0.01878658901310,  0.00000000000000 ]
    - # atom 2
      - [  0.00000000000000, -0.02169641878722 ]
      - [  0.00000000000000, -0.00000000000000 ]
      - [ -0.00000000000000, -0.75567031771541 ]
  - # 6
    frequency:    7.1366006883
    eigenvector:
    - # atom 1
      - [ -0.01878658901310,  0.00000000000000 ]
      - [ -0.00000000000000,  0.00000000000000 ]
      - [  0.65432308564574, -0.00000000000000 ]
    - # atom 2
      - [  0.00000000000000,  0.75567031771541 ]
      - [ -0.00000000000000, -0.00000000000000 ]
      - [ -0.00000000000000, -0.02169641878722 ]

